file 10350795 1682585540                                        
version 3
run General-0-20230427-10:52:01-844
attr configname General
attr datetime 20230427-10:52:01
attr datetimef 20230427-105201
attr experiment General
attr inifile omnetpp.ini
attr iterationvars ""
attr iterationvarsd ""
attr iterationvarsf ""
attr measurement ""
attr network SimpleEthernetNet
attr processid 844
attr repetition 0
attr replication #0
attr resultdir results
attr runnumber 0
attr seedset 0
config network SimpleEthernetNet
config **.host1.app[*].payloadLength 1500B
config **.host2.app[*].payloadLength 200B
config **.host1.app[*].period 10ms
config **.host2.app[*].period 1ms
config **.host1.app[*].destination "\"SimpleEthernetNet.host2.eth\""
config **.host2.app[*].destination "\"SimpleEthernetNet.host1.eth\""
config **.host*.app[*].flow "\"DataTransmission\""
config **.host1.app[*].burstSize 20
config **.host1.app[*].startTime 500ms

vector 0 SimpleEthernetNet.host2.app[0] EtoEDelay:vector ETV
attr recordingmode vector
vector 1 SimpleEthernetNet.host2.app[0] SigThroughput:vector ETV
attr recordingmode vector
vector 2 SimpleEthernetNet.host2.app[0] BurstEtoEDelay:vector ETV
attr recordingmode vector
0	1170 1089407 66 296586 0.500012208 16.880098336 32768 1.2208e-05 0.000245984 4.2296271359999 0.00071090451975793
1	1090577 1236582 66 296586 0.500012208 16.880098336 32768 23999.414030307 23302564.786124 702603444333.52 1.5403694890187e+19
0	2327159 1120668 296592 593112 16.88011064 33.260196768 32768 1.2208e-05 0.000245984 4.2304145919999 0.00071106907916299
1	3447827 1267708 296592 593112 16.88011064 33.260196768 32768 23290214.071822 23646140.854968 770317847521.27 1.810912189781e+19
0	4715535 1120664 593118 889699 33.260209072 49.65004912 32768 1.2208e-05 0.000245984 4.2302177279999 0.00071108607246347
1	5836199 1267873 593118 889699 33.260209072 49.65004912 32768 23639666.708955 23762976.524738 776918661226.9 1.8420526892675e+19
0	7104072 1141243 889705 1186225 49.650061424 66.030147552 32768 1.2208e-05 0.000245984 4.2300208639999 0.00071096742174321
1	8245315 1288336 889705 1186225 49.650061424 66.030147552 32768 23758592.628979 23821783.402339 779657641382.37 1.855060885949e+19
0	9533651 270021 1186231 1255675 66.030159856 69.870036816 7671 1.2208e-05 0.000245984 0.99057225600004 0.00016655560190361
1	9803672 304475 1186231 1255675 66.030159856 69.870036816 7671 23818469.249305 23831579.413295 182762798496.66 4.3543528939457e+18
2	10108147 242646 180 1255596 0.500245984 69.860245984 6937 0.000245984 0.000245984 1.7063910079999 0.00041974488571192

